# vtk DataFile Version 4.0
 
ASCII
DATASET UNSTRUCTURED_GRID
POINTS 9261 float
-659.6969000988257 -0.0013991260107149273 0.0
-651.57819050502 -103.20076123671124 0.0
-627.4067834003434 -203.8576930412148 0.0
-587.7933021428788 -299.49641928448233 0.0
-533.7056073740357 -387.7605534057776 0.0
-466.47604270978013 -466.47674561689746 0.0
-387.76029603833206 -533.7069570818581 0.0
-299.4951950030758 -587.7932091063158 0.0
-203.85800741916887 -627.4108002249146 0.0
-103.1986595030121 -651.5720924268642 0.0
3.8255168277601115e-6 -659.7010450125409 0.0
103.19850893527075 -651.5712610552215 0.0
203.85816868683952 -627.4106847395875 0.0
299.4956628420296 -587.7943945919259 0.0
387.75923087089336 -533.7053046114274 0.0
466.4767774885232 -466.47754024747127 0.0
533.706604476606 -387.76121394895245 0.0
587.7947411239888 -299.49709330090894 0.0
627.4109615594068 -203.85897502972335 0.0
651.5738370553219 -103.20002843443523 0.0
659.6969000988257 -0.0013836265151212373 0.0
-659.6969000988257 -0.0012592134096392083 0.0
-651.57819050502 -92.88068511304012 0.0
-627.4067834003434 -183.4719237370933 0.0
-587.7933021428788 -269.5467773560341 0.0
-533.7056073740357 -348.98449806519983 0.0
-466.47604270978013 -419.8290710552077 0.0
-387.76029603833206 -480.33626137367236 0.0
-299.4951950030758 -529.0138881956842 0.0
-203.8580074191689 -564.6697202024232 0.0
-103.19865950301211 -586.4148831841777 0.0
3.8255168163914275e-6 -593.7309405112868 0.0
103.19850893527072 -586.4141349496994 0.0
203.8581686868395 -564.6696162656287 0.0
299.49566284202956 -529.0149551327333 0.0
387.75923087089336 -480.33477415028466 0.0
466.4767774885232 -419.8297862227241 0.0
533.706604476606 -348.9850925540572 0.0
587.7947411239888 -269.547383970818 0.0
627.4109615594068 -183.47307752675098 0.0
651.5738370553219 -92.88002559099165 0.0
659.6969000988257 -0.0012452638636210015 0.0
-659.6969000988257 -0.0011193008085634893 0.0
-651.57819050502 -82.560608989369 0.0
-627.4067834003434 -163.08615443297182 0.0
-587.7933021428788 -239.59713542758587 0.0
-533.7056073740357 -310.2084427246221 0.0
-466.47604270978013 -373.1813964935179 0.0
-387.7602960383321 -426.96556566548657 0.0
-299.4951950030759 -470.23456728505255 0.0
-203.8580074191689 -501.9286401799317 0.0
-103.19865950301212 -521.2576739414914 0.0
3.825516805022744e-6 -527.7608360100328 0.0
103.1985089352707 -521.2570088441771 0.0
203.85816868683946 -501.92854779167 0.0
299.49566284202956 -470.2355156735407 0.0
387.7592308708933 -426.96424368914194 0.0
466.47677748852317 -373.182032197977 0.0
533.706604476606 -310.20897115916193 0.0
587.7947411239887 -239.59767464072704 0.0
627.4109615594068 -163.08718002377861 0.0
651.5738370553219 -82.56002274754809 0.0
659.6969000988257 -0.0011069012121207656 0.0
-659.6969000988257 -0.0009793882074877705 0.0
-651.57819050502 -72.24053286569787 0.0
-627.4067834003434 -142.70038512885037 0.0
-587.7933021428788 -209.64749349913765 0.0
-533.7056073740357 -271.4323873840443 0.0
-466.47604270978013 -326.5337219318282 0.0
-387.7602960383321 -373.5948699573007 0.0
-299.4951950030759 -411.455246374421 0.0
-203.85800741916893 -439.1875601574402 0.0
-103.19865950301215 -456.1004646988049 0.0
3.8255167936540605e-6 -461.79073150877866 0.0
103.19850893527067 -456.099882738655 0.0
203.85816868683943 -439.1874793177112 0.0
299.4956628420295 -411.4560762143481 0.0
387.75923087089325 -373.59371322799916 0.0
466.47677748852317 -326.53427817322984 0.0
533.706604476606 -271.43284976426673 0.0
587.7947411239887 -209.6479653106361 0.0
627.4109615594068 -142.70128252080625 0.0
651.5738370553219 -72.24001990410451 0.0
659.6969000988257 -0.0009685385606205299 0.0
-659.6969000988257 -0.0008394756064120514 0.0
-651.57819050502 -61.920456742026744 0.0
-627.4067834003434 -122.31461582472888 0.0
-587.7933021428788 -179.6978515706894 0.0
-533.7056073740357 -232.65633204346656 0.0
-466.47604270978013 -279.88604737013844 0.0
-387.7602960383321 -320.2241742491149 0.0
-299.4951950030759 -352.6759254637893 0.0
-203.85800741916896 -376.44648013494873 0.0
-103.19865950301217 -390.9432554561185 0.0
3.8255167822853766e-6 -395.82062700752454 0.0
103.19850893527064 -390.94275663313283 0.0
203.8581686868394 -376.44641084375246 0.0
299.4956628420295 -352.6766367551555 0.0
387.75923087089325 -320.22318276685644 0.0
466.47677748852317 -279.8865241484827 0.0
533.706604476606 -232.65672836937145 0.0
587.7947411239887 -179.69825598054513 0.0
627.4109615594068 -122.31538501783388 0.0
651.5738370553219 -61.920017060660946 0.0
659.6969000988257 -0.000830175909120294 0.0
-659.6969000988257 -0.0006995630053363326 0.0
-651.57819050502 -51.60038061835562 0.0
-627.4067834003434 -101.92884652060741 0.0
-587.7933021428788 -149.7482096422412 0.0
-533.7056073740357 -193.8802767028888 0.0
-466.47604270978013 -233.2383728084487 0.0
-387.76029603833217 -266.85347854092913 0.0
-299.4951950030759 -293.8966045531578 0.0
-203.85800741916898 -313.70540011245726 0.0
-103.19865950301218 -325.7860462134321 0.0
3.825516770916693e-6 -329.85052250627047 0.0
103.19850893527061 -325.7856305276107 0.0
203.85816868683938 -313.7053423697937 0.0
299.49566284202945 -293.89719729596294 0.0
387.75923087089325 -266.85265230571366 0.0
466.4767774885231 -233.23877012373558 0.0
533.706604476606 -193.88060697447622 0.0
587.7947411239886 -149.74854665045416 0.0
627.4109615594068 -101.9294875148615 0.0
651.5738370553219 -51.60001421721738 0.0
659.6969000988257 -0.0006918132576200582 0.0
-659.6969000988257 -0.0005596504042606137 0.0
-651.57819050502 -41.2803044946845 0.0
-627.4067834003434 -81.54307721648594 0.0
-587.7933021428788 -119.79856771379298 0.0
-533.7056073740357 -155.10422136231105 0.0
-466.4760427097802 -186.59069824675896 0.0
-387.76029603833217 -213.48278283274334 0.0
-299.49519500307593 -235.11728364252616 0.0
-203.85800741916898 -250.96432008996578 0.0
-103.1986595030122 -260.6288369707457 0.0
3.825516759548009e-6 -263.8804180050164 0.0
103.19850893527058 -260.62850442208855 0.0
203.85816868683935 -250.96427389583494 0.0
299.4956628420294 -235.11775783677035 0.0
387.7592308708932 -213.48212184457094 0.0
466.4767774885231 -186.59101609898846 0.0
533.706604476606 -155.104485579581 0.0
587.7947411239886 -119.79883732036322 0.0
627.4109615594067 -81.54359001188914 0.0
651.5738370553219 -41.28001137377381 0.0
659.6969000988257 -0.0005534506061198224 0.0
-659.6969000988257 -0.0004197378031848948 0.0
-651.57819050502 -30.960228371013372 0.0
-627.4067834003434 -61.15730791236447 0.0
-587.7933021428788 -89.84892578534476 0.0
-533.7056073740357 -116.3281660217333 0.0
-466.4760427097802 -139.9430236850692 0.0
-387.76029603833217 -160.11208712455755 0.0
-299.49519500307593 -176.3379627318946 0.0
-203.858007419169 -188.2232400674743 0.0
-103.19865950301221 -195.47162772805927 0.0
3.825516748179325e-6 -197.91031350376232 0.0
103.19850893527055 -195.47137831656642 0.0
203.85816868683932 -188.22320542187617 0.0
299.4956628420294 -176.33831837757776 0.0
387.75923087089313 -160.11159138342816 0.0
466.4767774885231 -139.94326207424132 0.0
533.706604476606 -116.32836418468577 0.0
587.7947411239886 -89.84912799027225 0.0
627.4109615594067 -61.15769250891677 0.0
651.5738370553219 -30.960008530330242 0.0
659.6969000988257 -0.0004150879546195866 0.0
-659.6969000988257 -0.00027982520210917557 0.0
-651.57819050502 -20.640152247342243 0.0
-627.4067834003434 -40.77153860824296 0.0
-587.7933021428788 -59.89928385689649 0.0
-533.7056073740357 -77.55211068115551 0.0
-466.4760427097802 -93.29534912337942 0.0
-387.76029603833217 -106.7413914163717 0.0
-299.49519500307593 -117.55864182126294 0.0
-203.85800741916904 -125.48216004498283 0.0
-103.19865950301224 -130.3144184853728 0.0
3.825516736810642e-6 -131.94020900250814 0.0
103.19850893527052 -130.31425221104416 0.0
203.8581686868393 -125.48213694791741 0.0
299.49566284202933 -117.55887891838518 0.0
387.75923087089313 -106.74106092228539 0.0
466.47677748852306 -93.29550804949412 0.0
533.706604476606 -77.55224278979045 0.0
587.7947411239886 -59.89941866018128 0.0
627.4109615594067 -40.7717950059444 0.0
651.5738370553219 -20.640005686886667 0.0
659.6969000988257 -0.0002767253031193506 0.0
-659.6969000988257 -0.0001399126010334568 0.0
-651.57819050502 -10.320076123671129 0.0
-627.4067834003434 -20.38576930412151 0.0
-587.7933021428788 -29.949641928448273 0.0
-533.7056073740357 -38.77605534057773 0.0
-466.4760427097802 -46.64767456168971 0.0
-387.7602960383322 -53.370695708185906 0.0
-299.495195003076 -58.77932091063133 0.0
-203.85800741916904 -62.74108002249136 0.0
-103.19865950301225 -65.15720924268635 0.0
3.825516725441958e-6 -65.97010450125413 0.0
103.1985089352705 -65.15712610552202 0.0
203.85816868683926 -62.74106847395865 0.0
299.49566284202933 -58.77943945919253 0.0
387.75923087089313 -53.37053046114261 0.0
466.47677748852306 -46.64775402474703 0.0
533.706604476606 -38.776121394895256 0.0
587.7947411239885 -29.949709330090343 0.0
627.4109615594067 -20.38589750297203 0.0
651.5738370553219 -10.320002843443092 0.0
659.6969000988257 -0.00013836265161911495 0.0
-659.6969000988257 4.226220068348496e-14 0.0
-651.57819050502 0.0 0.0
-627.4067834003433 -2.842170943040401e-14 0.0
-587.7933021428789 -5.684341886080802e-14 0.0
-533.7056073740357 0.0 0.0
-466.4760427097802 5.684341886080802e-14 0.0
-387.7602960383322 -1.1368683772161603e-13 0.0
-299.495195003076 2.2737367544323206e-13 0.0
-203.85800741916907 1.1368683772161603e-13 0.0
-103.19865950301227 0.0 0.0
3.825516714073274e-6 0.0 0.0
103.19850893527047 1.1368683772161603e-13 0.0
203.85816868683924 1.1368683772161603e-13 0.0
299.4956628420293 0.0 0.0
387.7592308708931 1.1368683772161603e-13 0.0
466.476777488523 1.1368683772161603e-13 0.0
533.706604476606 0.0 0.0
587.7947411239885 6.252776074688882e-13 0.0
627.4109615594067 3.410605131648481e-13 0.0
651.5738370553217 4.689582056016661e-13 0.0
659.6969000988257 -1.188790819256491e-13 0.0
-659.6969000988257 0.0001399126011179812 0.0
-651.57819050502 10.320076123671129 0.0
-627.4067834003433 20.385769304121453 0.0
[...]
POINT_DATA 9261

VECTORS wake float
-0.0 -0.0 0.0
-0.0 -0.0 0.0
-0.0 -0.0 0.0
-0.0 -0.0 0.0
-0.0 -0.0 0.0
-0.0 -0.0 0.0
-0.0 -0.0 0.0
-0.0 -0.0 0.0
-0.0 -0.0 0.0
-0.0 -0.0 0.0
-0.0 -0.0 0.0
-0.0 -0.0 0.0
-0.0 -0.0 0.0
-0.0 -0.0 0.0
-0.0 -0.0 0.0
-0.0 -0.0 0.0
-0.0 -0.0 0.0
-0.0 -0.0 0.0
-0.0 -0.0 0.0
-0.0 -0.0 0.0
-0.0 -0.0 0.0
-0.0 -0.0 0.0
-0.0 -0.0 0.0
-0.0 -0.0 0.0
-0.0 -0.0 0.0
-0.0 -0.0 0.0
-0.0 -0.0 0.0
-0.0 -0.0 0.0
-0.0 -0.0 0.0
-0.0 -0.0 0.0
-0.0 -0.0 0.0
-0.0 -0.0 0.0
-0.0 -0.0 0.0
-0.0 -0.0 0.0
-0.0 -0.0 0.0
-0.0 -0.0 0.0
-0.0 -0.0 0.0
-0.0 -0.0 0.0
-0.0 -0.0 0.0
-0.0 -0.0 0.0
-0.0 -0.0 0.0
-0.0 -0.0 0.0
-0.0 -0.0 0.0
-0.0 -0.0 0.0
-0.0 -0.0 0.0
-0.0 -0.0 0.0
-0.0 -0.0 0.0
-0.0 -0.0 0.0
-0.0 -0.0 0.0
-0.0 -0.0 0.0
-0.0 -0.0 0.0
-0.0 -0.0 0.0
-0.0 -0.0 0.0
-0.0 -0.0 0.0
-0.0 -0.0 0.0
-0.0 -0.0 0.0
-0.0 -0.0 0.0
-0.0 -0.0 0.0
-0.0 -0.0 0.0
-0.0 -0.0 0.0
-0.0 -0.0 0.0
-0.0 -0.0 0.0
-0.0 -0.0 0.0
-0.0 -0.0 0.0
-0.0 -0.0 0.0
-0.0 -0.0 0.0
-0.0 -0.0 0.0
-0.0 -0.0 0.0
-0.0 -0.0 0.0
-0.0 -0.0 0.0
-0.0 -0.0 0.0
-0.0 -0.0 0.0
-0.0 -0.0 0.0
-0.0 -0.0 0.0
-0.0 -0.0 0.0
-0.0 -0.0 0.0
-0.0 -0.0 0.0
-0.0 -0.0 0.0
-0.0 -0.0 0.0
-0.0 -0.0 0.0
-0.0 -0.0 0.0
-0.0 -0.0 0.0
-0.0 -0.0 0.0
-0.0 -0.0 0.0
-0.0 -0.0 0.0
-0.0 -0.0 0.0
-0.0 -0.0 0.0
-0.0 -0.0 0.0
-0.0 -0.0 0.0
-0.0 -0.0 0.0
-0.0 -0.0 0.0
-0.0 -0.0 0.0
-0.0 -0.0 0.0
-0.0 -0.0 0.0
-0.0 -0.0 0.0
-0.0 -0.0 0.0
-0.0 -0.0 0.0
-0.0 -0.0 0.0
-0.0 -0.0 0.0
-0.0 -0.0 0.0
-0.0 -0.0 0.0
-0.0 -0.0 0.0
-0.0 -0.0 0.0
-0.0 -0.0 0.0
-0.0 -0.0 0.0
-0.0 -0.0 0.0
-0.0 -0.0 0.0
-0.0 -0.0 0.0
-0.0 -0.0 0.0
-0.0 -0.0 0.0
-0.0 -0.0 0.0
-0.0 -0.0 0.0
-0.0 -0.0 0.0
-0.0 -0.0 0.0
-0.0 -0.0 0.0
-0.0 -0.0 0.0
-0.0 -0.0 0.0
-0.0 -0.0 0.0
-0.0 -0.0 0.0
-0.0 -0.0 0.0
-0.0 -0.0 0.0
-0.0 -0.0 0.0
-0.0 -0.0 0.0
-0.0 -0.0 0.0
-0.0 -0.0 0.0
-0.0 -0.0 0.0
-0.0 -0.0 0.0
-0.0 -0.0 0.0
-0.0 -0.0 0.0
-0.0 -0.0 0.0
-0.0 -0.0 0.0
-0.0 -0.0 0.0
-0.0 -0.0 0.0
-0.0 -0.0 0.0
-0.0 -0.0 0.0
-0.0 -0.0 0.0
-0.0 -0.0 0.0
-0.0 -0.0 0.0
-0.0 -0.0 0.0
-0.0 -0.0 0.0
-0.0 -0.0 0.0
-0.0 -0.0 0.0
-0.0 -0.0 0.0
-0.0 -0.0 0.0
-0.0 -0.0 0.0
-0.0 -0.0 0.0
-0.0 -0.0 0.0
-0.0 -0.0 0.0
-0.0 -0.0 0.0
-0.0 -0.0 0.0
-0.0 -0.0 0.0
-0.0 -0.0 0.0
-0.0 -0.0 0.0
-0.0 -0.0 0.0
-0.0 -0.0 0.0
-0.0 -0.0 0.0
-0.0 -0.0 0.0
-0.0 -0.0 0.0
-0.0 -0.0 0.0
-0.0 -0.0 0.0
-0.0 -0.0 0.0
-0.0 -0.0 0.0
-0.0 -0.0 0.0
-0.0 -0.0 0.0
-0.0 -0.0 0.0
-0.0 -0.0 0.0
-0.0 -0.0 0.0
-0.0 -0.0 0.0
-0.0 -0.0 0.0
-0.0 -0.0 0.0
-0.0 -0.0 0.0
-0.0 -0.0 0.0
-0.0 -0.0 0.0
-0.0 -0.0 0.0
-0.0 -0.0 0.0
-0.0 -0.0 0.0
-0.0 -0.0 0.0
-0.0 -0.0 0.0
-0.0 -0.0 0.0
-0.0 -0.0 0.0
-0.0 -0.0 0.0
-0.0 -0.0 0.0
-0.0 -0.0 0.0
-0.0 -0.0 0.0
-0.0 -0.0 0.0
-0.0 -0.0 0.0
-0.0 -0.0 0.0
-0.0 -0.0 0.0
-0.0 -0.0 0.0
-0.0 -0.0 0.0
-0.0 -0.0 0.0
-0.0 -0.0 0.0
-0.0 -0.0 0.0
-0.0 -0.0 0.0
-0.0 -0.0 0.0
-0.0 -0.0 0.0
-0.0 -0.0 0.0
-0.0 -0.0 0.0
-0.0 -0.0 0.0
-0.0 -0.0 0.0
-0.0 -0.0 0.0
-0.0 -0.0 0.0
-0.0 -0.0 0.0
-0.0 -0.0 0.0
-0.0 -0.0 0.0
-0.0 -0.0 0.0
-0.0 -0.0 0.0
-0.0 -0.0 0.0
-0.0 -0.0 0.0
-0.0 -0.0 0.0
-0.0 -0.0 0.0
-0.0 -0.0 0.0
-0.0 -0.0 0.0
-0.0 -0.0 0.0
-0.0 -0.0 0.0
-0.0 -0.0 0.0
-0.0 -0.0 0.0
-0.0 -0.0 0.0
-0.0 -0.0 0.0
-0.0 -0.0 0.0
-0.0 -0.0 0.0
-0.0 -0.0 0.0
-0.0 -0.0 0.0
-0.0 -0.0 0.0
-0.0 -0.0 0.0
-0.0 -0.0 0.0
-0.0 -0.0 0.0
-0.0 -0.0 0.0
-0.0 -0.0 0.0
-0.0 -0.0 0.0
-0.0 -0.0 0.0
-0.0 -0.0 0.0
-0.0 -0.0 0.0
-0.0 -0.0 0.0
-0.0 -0.0 0.0
-0.0 -0.0 0.0
-0.0 -0.0 0.0
-0.0 -0.0 0.0
-0.0 -0.0 0.0
-0.0 -0.0 0.0
-0.0 -0.0 0.0
-0.0 -0.0 0.0
-0.0 -0.0 0.0
-0.0 -0.0 0.0
-0.0 -0.0 0.0
-0.0 -0.0 0.0
-0.0 -0.0 0.0
-0.0 -0.0 0.0
-0.0 -0.0 0.0
-0.0 -0.0 0.0
-0.0 -0.0 0.0
-0.0 -0.0 0.0
-0.0 -0.0 0.0
-0.0 -0.0 0.0
-0.0 -0.0 0.0
-0.0 -0.0 0.0
-0.0 -0.0 0.0
-0.0 -0.0 0.0
-0.0 -0.0 0.0
-0.0 -0.0 0.0
-0.0 -0.0 0.0
-0.0 -0.0 0.0
-0.0 -0.0 0.0
-0.0 -0.0 0.0
-0.0 -0.0 0.0
-0.0 -0.0 0.0
-0.0 -0.0 0.0
-0.0 -0.0 0.0
-0.0 -0.0 0.0
-0.0 -0.0 0.0
-0.0 -0.0 0.0
-0.0 -0.0 0.0
-0.0 -0.0 0.0
-0.0 -0.0 0.0
-0.0 -0.0 0.0
-0.0 -0.0 0.0
-0.0 -0.0 0.0
-0.0 -0.0 0.0
-0.0 -0.0 0.0
-0.0 -0.0 0.0
-0.0 -0.0 0.0
-0.0 -0.0 0.0
-0.0 -0.0 0.0
-0.0 -0.0 0.0
-0.0 -0.0 0.0
-0.0 -0.0 0.0
-0.0 -0.0 0.0
-0.0 -0.0 0.0
-0.0 -0.0 0.0
-0.0 -0.0 0.0
-0.0 -0.0 0.0
-0.0 -0.0 0.0
-0.0 -0.0 0.0
-0.0 -0.0 0.0
-0.0 -0.0 0.0
-0.0 -0.0 0.0
-0.0 -0.0 0.0
-0.0 -0.0 0.0
-0.0 -0.0 0.0
-0.0 -0.0 0.0
-0.0 -0.0 0.0
-0.0 -0.0 0.0
-0.0 -0.0 0.0
-0.0 -0.0 0.0
-0.0 -0.0 0.0
-0.0 -0.0 0.0
-0.0 -0.0 0.0
-0.0 -0.0 0.0
-0.0 -0.0 0.0
-0.0 -0.0 0.0
-0.0 -0.0 0.0
-0.0 -0.0 0.0
-0.0 -0.0 0.0
-0.0 -0.0 0.0
-0.0 -0.0 0.0
-0.0 -0.0 0.0
-0.0 -0.0 0.0
-0.0 -0.0 0.0
-0.0 -0.0 0.0
-0.0 -0.0 0.0
-0.0 -0.0 0.0
-0.0 -0.0 0.0
-0.0 -0.0 0.0
-0.0 -0.0 0.0
-0.0 -0.0 0.0
-0.0 -0.0 0.0
-0.0 -0.0 0.0
-0.0 -0.0 0.0
-0.0 -0.0 0.0
-0.0 -0.0 0.0
-0.0 -0.0 0.0
-0.0 -0.0 0.0
-0.0 -0.0 0.0
-0.0 -0.0 0.0
-0.0 -0.0 0.0
-0.0 -0.0 0.0
-0.0 -0.0 0.0
-0.0 -0.0 0.0
-0.0 -0.0 0.0
-0.0 -0.0 0.0
-0.0 -0.0 0.0
-0.0 -0.0 0.0
-0.0 -0.0 0.0
-0.0 -0.0 0.0
-0.0 -0.0 0.0
-0.0 -0.0 0.0
-0.0 -0.0 0.0
-0.0 -0.0 0.0
-0.0 -0.0 0.0
-0.0 -0.0 0.0
-0.0 -0.0 0.0
-0.0 -0.0 0.0
-0.0 -0.0 0.0
-0.0 -0.0 0.0
-0.0 -0.0 0.0
-0.0 -0.0 0.0
-0.0 -0.0 0.0
-0.0 -0.0 0.0
-0.0 -0.0 0.0
-0.0 -0.0 0.0
-0.0 -0.0 0.0
-0.0 -0.0 0.0
-0.0 -0.0 0.0
-0.0 -0.0 0.0
-0.0 -0.0 0.0
-0.0 -0.0 0.0
-0.0 -0.0 0.0
-0.0 -0.0 0.0
-0.0 -0.0 0.0
-0.0 -0.0 0.0
-0.0 -0.0 0.0
-0.0 -0.0 0.0
-0.0 -0.0 0.0
-0.0 -0.0 0.0
-0.0 -0.0 0.0
-0.0 -0.0 0.0
-0.0 -0.0 0.0
-0.0 -0.0 0.0
-0.0 -0.0 0.0
-0.0 -0.0 0.0
-0.0 -0.0 0.0
-0.0 -0.0 0.0
-0.0 -0.0 0.0
-0.0 -0.0 0.0
-0.0 -0.0 0.0
-0.0 -0.0 0.0
-0.0 -0.0 0.0
-0.0 -0.0 0.0
-0.0 -0.0 0.0
-0.0 -0.0 0.0
-0.0 -0.0 0.0
-0.0 -0.0 0.0
-0.0 -0.0 0.0
-0.0 -0.0 0.0
-0.0 -0.0 0.0
-0.0 -0.0 0.0
-0.0 -0.0 0.0
-0.0 -0.0 0.0
-0.0 -0.0 0.0
-0.0 -0.0 0.0
-0.0 -0.0 0.0
-0.0 -0.0 0.0
-0.0 -0.0 0.0
-0.0 -0.0 0.0
-0.0 -0.0 0.0
-0.0 -0.0 0.0
-0.0 -0.0 0.0
-0.0 -0.0 0.0
-0.0 -0.0 0.0
-0.0 -0.0 0.0
-0.0 -0.0 0.0
-0.0 -0.0 0.0
-0.0 -0.0 0.0
-0.0 -0.0 0.0
-0.0 -0.0 0.0
-0.0 -0.0 0.0
-0.0 -0.0 0.0
-0.0 -0.0 0.0
-0.0 -0.0 0.0
-0.0 -0.0 0.0
-0.0 -0.0 0.0
-0.0 -0.0 0.0
-0.0 -0.0 0.0
-0.0 -0.0 0.0
-0.0 -0.0 0.0
-0.0 -0.0 0.0
-0.0 -0.0 0.0
-0.0 -0.0 0.0
-0.0 -0.0 0.0
-0.0 -0.0 0.0
-0.0 -0.0 0.0
-0.0 -0.0 0.0
-0.0 -0.0 0.0
-0.0 -0.0 0.0
-0.0 -0.0 0.0
-0.0 -0.0 0.0
-0.0 -0.0 0.0
-0.0 -0.0 0.0
-0.0 -0.0 0.0
-0.0 -0.0 0.0
-0.0 -0.0 0.0
-8.313114373295512e-16 -4.525448686692592 0.0
-8.288148237958556e-16 -4.511857755628855 0.0
-8.233517626578433e-16 -4.4821182359468486 0.0
-8.247501227659902e-16 -4.489730553822884 0.0
-8.105500909340782e-16 -4.412429180932901 0.0
-7.880637026603581e-16 -4.290018984570565 0.0
-7.88098644315178e-16 -4.290209198079985 0.0
-7.647806615753322e-16 -4.163272012293952 0.0
-7.622969844883068e-16 -4.149751503965866 0.0
-7.627216059855165e-16 -4.152063035734347 0.0
-7.541416777739768e-16 -4.105356081982384 0.0
-7.628254220771712e-16 -4.152628184214856 0.0
-7.623975025986428e-16 -4.150298699072275 0.0
-7.647812443218577e-16 -4.163275184618282 0.0
-7.880847421426305e-16 -4.290133518177518 0.0
-7.878635749303047e-16 -4.2889295399503276 0.0
-8.105381366828345e-16 -4.412364105020118 0.0
-8.247741660576414e-16 -4.489861439406482 0.0
-8.233536720935483e-16 -4.482128630430691 0.0
-8.288146856537087e-16 -4.511857003618033 0.0
-8.3131143790494e-16 -4.525448689824862 0.0
-8.313114373295728e-16 -4.525448686692709 0.0
-8.291886422758837e-16 -4.51389272865285 0.0
-8.243548090151452e-16 -4.4875785659946645 0.0
-8.263724591752263e-16 -4.498562141893097 0.0
-8.133068933372939e-16 -4.427436514231695 0.0
-7.916590001759533e-16 -4.30959087266161 0.0
-7.931817658633235e-16 -4.317880422968035 0.0
-7.680101041003353e-16 -4.180852278578357 0.0
-7.674862516417368e-16 -4.178000558615979 0.0
-7.68363358075464e-16 -4.182775303651788 0.0
-7.595065737825983e-16 -4.134561215589651 0.0
-7.684212418298111e-16 -4.183090408134089 0.0
-7.675426514216038e-16 -4.178307584717471 0.0
-7.680063878546134e-16 -4.180832048278896 0.0
-7.931809413109136e-16 -4.31787593431378 0.0
-7.915555320451307e-16 -4.309027618391646 0.0
-8.133104289419253e-16 -4.4274557611668595 0.0
-8.263953279328348e-16 -4.498686633611168 0.0
-8.24356204440354e-16 -4.487586162335693 0.0
-8.291885024264897e-16 -4.513891967348208 0.0
-8.313114379049581e-16 -4.525448689824961 0.0
-8.313114373295946e-16 -4.525448686692828 0.0
-8.295413677391643e-16 -4.515812876641784 0.0
-8.253194527179985e-16 -4.492829841728614 0.0
-8.276396564693579e-16 -4.505460442665825 0.0
-8.16326618875051e-16 -4.4438751344110505 0.0
-7.94743053293468e-16 -4.326379675874977 0.0
-7.984643273022236e-16 -4.346637348053581 0.0
-7.733639254970205e-16 -4.209997124806198 0.0
-7.72742952751193e-16 -4.206616706624891 0.0
-7.740721816289325e-16 -4.213852691610739 0.0
-7.631967893035034e-16 -4.154649813235244 0.0
-7.740754369472919e-16 -4.213870412738505 0.0
-7.727269840757502e-16 -4.206529777204621 0.0
-7.733578765765372e-16 -4.209964196016784 0.0
-7.984768639938419e-16 -4.346705594624086 0.0
-7.946659396437304e-16 -4.325959888717889 0.0
-8.163281375041858e-16 -4.4438834014430135 0.0
-8.276606207653078e-16 -4.505574566977502 0.0
-8.253204212325063e-16 -4.492835114076029 0.0
-8.295412285332913e-16 -4.515812118840307 0.0
-8.313114379049759e-16 -4.525448689825057 0.0
-8.313114373296163e-16 -4.525448686692946 0.0
-8.298716569364023e-16 -4.5176108872870735 0.0
-8.272637144717448e-16 -4.503413909750512 0.0
-8.287483903060984e-16 -4.511496108554757 0.0
-8.191384929650696e-16 -4.459182264009431 0.0
-7.984594619373207e-16 -4.346610862240658 0.0
-8.035885455018027e-16 -4.374532292692023 0.0
-7.786973275177268e-16 -4.2390308131285215 0.0
-7.774411410466304e-16 -4.232192452484615 0.0
-7.794393958798379e-16 -4.243070445141211 0.0
-7.697237053831048e-16 -4.190180689479973 0.0
-7.793866806215707e-16 -4.242783476641102 0.0
-7.773485630334906e-16 -4.231688481254138 0.0
-7.78691160171784e-16 -4.238997239660932 0.0
-8.036117894781094e-16 -4.374658827005551 0.0
-7.984078377462142e-16 -4.346329833233533 0.0
-8.191472437568e-16 -4.459229901100858 0.0
-8.287669070487612e-16 -4.511596909006913 0.0
-8.272644370605926e-16 -4.503417843340988 0.0
-8.298715202285434e-16 -4.517610143084152 0.0
-8.31311437904994e-16 -4.525448689825156 0.0
-8.313114373296379e-16 -4.525448686693063 0.0
-8.301779436444309e-16 -4.5192782344669125 0.0
-8.281202918457166e-16 -4.508076899790134 0.0
-8.296986497376567e-16 -4.5166690799628935 0.0
-8.218159774795155e-16 -4.473757810832728 0.0
-8.040067117518718e-16 -4.376808683731792 0.0
-8.083413173113208e-16 -4.40040517736281 0.0
-7.845493289446496e-16 -4.27088762512796 0.0
-7.815686964246689e-16 -4.2546618174253865 0.0
-7.84490698887668e-16 -4.270568457963341 0.0
-7.762124119740087e-16 -4.225503562956209 0.0
-7.843868934022452e-16 -4.27000336722047 0.0
-7.814067496367326e-16 -4.253780220173296 0.0
-7.845452139627802e-16 -4.270865224210013 0.0
-8.083706448536061e-16 -4.400564829067044 0.0
-8.039397693705487e-16 -4.376444266381038 0.0
-8.218271372322414e-16 -4.4738185616970245 0.0
-8.297143560181466e-16 -4.51675458097157 0.0
-8.281207533957116e-16 -4.5080794123512815 0.0
-8.301778108067032e-16 -4.519277511332004 0.0
-8.313114379050122e-16 -4.525448689825255 0.0
-8.313114373296598e-16 -4.525448686693182 0.0
-8.304580413242064e-16 -4.520803015217142 0.0
-8.289076442978049e-16 -4.512363046906927 0.0
-8.306655277380695e-16 -4.521932518646254 0.0
-8.242166693908098e-16 -4.486826568904937 0.0
-8.087153387185806e-16 -4.402441255071202 0.0
-8.126416701386853e-16 -4.423815207805103 0.0
-7.901247504448898e-16 -4.301238806133085 0.0
-7.868591856263648e-16 -4.283461899241517 0.0
-7.900666621989737e-16 -4.300922588450531 0.0
-7.833054143265167e-16 -4.264116069340072 0.0
-7.899416005281418e-16 -4.3002417844237755 0.0
-7.866914355340365e-16 -4.282548710271739 0.0
-7.901242336882328e-16 -4.3012359930408675 0.0
-8.126717378006802e-16 -4.423978888533379 0.0
-8.086528144762599e-16 -4.402100888948963 0.0
-8.242269972275827e-16 -4.486882791029717 0.0
-8.306782973854248e-16 -4.522002033368725 0.0
-8.289079139412886e-16 -4.512364514777684 0.0
-8.3045791322363e-16 -4.520802317870084 0.0
-8.313114379050299e-16 -4.525448689825351 0.0
-8.313114373296815e-16 -4.5254486866933 0.0
-8.307079717609297e-16 -4.522163573145068 0.0
-8.296162266629287e-16 -4.516220389642357 0.0
-8.313122991776945e-16 -4.525453378375363 0.0
-8.262304229235526e-16 -4.497788932552125 0.0
-8.134763228910868e-16 -4.42835884576386 0.0
-8.165991467052299e-16 -4.445358706819404 0.0
-7.943380118371971e-16 -4.324174732884868 0.0
-7.924307847829433e-16 -4.313792272376898 0.0
-7.962827759291265e-16 -4.334761535508467 0.0
-7.894408618807666e-16 -4.297515890189215 0.0
-7.961773201337212e-16 -4.334187460896485 0.0
-7.92269206728918e-16 -4.3129126824187285 0.0
-7.943417405433838e-16 -4.324195031015939 0.0
-8.166269687874711e-16 -4.445510163180865 0.0
-8.134026650852171e-16 -4.427957871344564 0.0
-8.262392561492114e-16 -4.497837018392957 0.0
-8.313221997788264e-16 -4.525507274737638 0.0
-8.296163618962409e-16 -4.5162211258182205 0.0
-8.307078486316937e-16 -4.522162902860726 0.0
-8.313114379050481e-16 -4.52544868982545 0.0
-8.313114373297032e-16 -4.5254486866934185 0.0
-8.309171568306126e-16 -4.52330232362577 0.0
-8.302360986967836e-16 -4.519594815826769 0.0
-8.31817137057574e-16 -4.52820158779232 0.0
-8.278272759814849e-16 -4.506481795719117 0.0
-8.178090820220851e-16 -4.451945287906552 0.0
-8.203389464506567e-16 -4.465717228411265 0.0
-7.989527483601345e-16 -4.3492961884542085 0.0
-7.979868931924823e-16 -4.344038317813059 0.0
-8.022402990383422e-16 -4.367192780791399 0.0
-7.941714239160604e-16 -4.3232678704803895 0.0
-8.021639961188626e-16 -4.3667774070442755 0.0
-7.978630527885229e-16 -4.343364162053507 0.0
-7.989602995426798e-16 -4.349337295177391 0.0
-8.203620238611232e-16 -4.465842855982592 0.0
-8.177155744582988e-16 -4.4514362564380425 0.0
-8.278338563575134e-16 -4.506517617617769 0.0
-8.318243952351908e-16 -4.5282410994709625 0.0
-8.30236144883792e-16 -4.519595067257132 0.0
-8.309170376988749e-16 -4.523301675102796 0.0
-8.313114379050661e-16 -4.525448689825549 0.0
-8.313114373297249e-16 -4.525448686693537 0.0
-8.310202592626603e-16 -4.523863587124326 0.0
-8.307513201452938e-16 -4.522399550758609 0.0
-8.321906134184039e-16 -4.530234698406145 0.0
-8.289874364928856e-16 -4.51279741538572 0.0
-8.209247179575068e-16 -4.468906019972815 0.0
-8.237873185754655e-16 -4.484489291927645 0.0
-8.055008663891225e-16 -4.384942482735668 0.0
-8.028511446393448e-16 -4.370518069364006 0.0
-8.07491108865693e-16 -4.395776858154258 0.0
-8.014370177023769e-16 -4.362819920869531 0.0
-8.074480519035376e-16 -4.395542466969331 0.0
-8.0277406100101665e-16 -4.370098445581421 0.0
-8.055107924101399e-16 -4.384996517477354 0.0
-8.238038347783854e-16 -4.484579201948675 0.0
-8.207873962311139e-16 -4.4681584753121095 0.0
-8.289864090428473e-16 -4.512791822208221 0.0
-8.321957083796748e-16 -4.530262434083482 0.0
-8.307513107592683e-16 -4.522399499663466 0.0
-8.3102013755365e-16 -4.523862924571333 0.0
-8.3131143790508395e-16 -4.525448689825645 0.0
-8.313114373297466e-16 -4.525448686693655 0.0
-8.310202688407405e-16 -4.523863639264966 0.0
-8.310499241241426e-16 -4.524025075108741 0.0
-8.324420519318128e-16 -4.531603465921175 0.0
-8.299935117159118e-16 -4.5182742338105735 0.0
-8.233083567455283e-16 -4.481881945165728 0.0
-8.266251738850998e-16 -4.499937856698103 0.0
-8.114750098210173e-16 -4.417464204841199 0.0
-8.068569809279265e-16 -4.39232482644352 0.0
-8.120433153273732e-16 -4.420557915924545 0.0
-8.082037594291227e-16 -4.399656347129778 0.0
-8.120370838743867e-16 -4.420523993474465 0.0
-8.068299795146341e-16 -4.392177837595736 0.0
-8.114852724324477e-16 -4.417520071895752 0.0
-8.26635426146667e-16 -4.4999936674106245 0.0
-8.231834748926946e-16 -4.481202120022562 0.0
-8.299924781639361e-16 -4.518268607415674 0.0
-8.324454345805967e-16 -4.531621880203487 0.0
-8.310498765777478e-16 -4.5240248162782235 0.0
-8.310201458265355e-16 -4.523862969606824 0.0
-8.31311437905102e-16 -4.525448689825744 0.0
-8.31311437329952e-16 -4.525448686694773 0.0
-8.310202753854679e-16 -4.5238636748928025 0.0
-8.31050282193808e-16 -4.524027024349212 0.0
-8.325028586415589e-16 -4.531934482231557 0.0
-8.309909644035929e-16 -4.523704113339243 0.0
-8.265571659093165e-16 -4.499567638521288 0.0
-8.287580956895359e-16 -4.511548942201401 0.0
-8.171654332876838e-16 -4.448441427392923 0.0
-8.117153437625152e-16 -4.418772521882299 0.0
-8.168177815388781e-16 -4.446548899419155 0.0
-8.14935436583363e-16 -4.436301890747889 0.0
-8.168219518431625e-16 -4.446571601498303 0.0
-8.116937451316872e-16 -4.418654944412381 0.0
-8.171743210147443e-16 -4.448489809925566 0.0
-8.287671183590134e-16 -4.5115980593263485 0.0
-8.264908019261661e-16 -4.4992063698235345 0.0
-8.308366815947158e-16 -4.522864236845958 0.0
-8.325050365955272e-16 -4.531946338460742 0.0
-8.310501991712663e-16 -4.524026572395545 0.0
-8.31020151441296e-16 -4.523863000172157 0.0
-8.313114379051201e-16 -4.525448689825843 0.0
-8.313114373299739e-16 -4.525448686694892 0.0
-8.310202797760182e-16 -4.523863698793845 0.0
-8.310504795808153e-16 -4.524028098874032 0.0
-8.325208230001338e-16 -4.532032275644794 0.0
-8.316582030901388e-16 -4.527336391571141 0.0
-8.285288582376777e-16 -4.510301031636397 0.0
-8.302251655178828e-16 -4.519535298372929 0.0
-8.214870756952298e-16 -4.471967352911774 0.0
-8.165972947636671e-16 -4.4453486253190935 0.0
-8.213534578106593e-16 -4.4712399710268445 0.0
-8.198990705798577e-16 -4.4633226557006935 0.0
-8.213682332741794e-16 -4.471320404903945 0.0
-8.165893818587719e-16 -4.445305549471152 0.0
-8.214935328416873e-16 -4.472002503979886 0.0
-8.302279189495393e-16 -4.519550287356737 0.0
-8.28485314657066e-16 -4.5100639914239755 0.0
-8.316701305534588e-16 -4.527401321657259 0.0
-8.325220863254831e-16 -4.532039152867681 0.0
-8.310503750327514e-16 -4.524027529740881 0.0
-8.31020155179349e-16 -4.523863020521169 0.0
-8.313114379054691e-16 -4.525448689827742 0.0
-8.313114373299954e-16 -4.525448686695009 0.0
-8.3102028266662e-16 -4.523863714529549 0.0
-8.310505822205554e-16 -4.524028657618753 0.0
-8.325308084153513e-16 -4.532086633713447 0.0
-8.321463704983052e-16 -4.529993851166872 0.0
-8.301160334424789e-16 -4.518941211024752 0.0
-8.312225261520831e-16 -4.524964676785789 0.0
-8.243933184864952e-16 -4.487788201792658 0.0
-8.212954221112342e-16 -4.470924039394064 0.0
-8.252659136868273e-16 -4.492538388817683 0.0
-8.23365169714143e-16 -4.482191220561999 0.0
-8.252808219733786e-16 -4.492619545749688 0.0
-8.212862845092578e-16 -4.470874296605733 0.0
-8.24397162411069e-16 -4.487809127143415 0.0
-8.3122350990339e-16 -4.524970032078475 0.0
-8.300961363377057e-16 -4.518832896231256 0.0
-8.321571741892299e-16 -4.530052663721002 0.0
-8.325314743822463e-16 -4.532090259068368 0.0
-8.310504653841262e-16 -4.524028021590857 0.0
-8.31020157620984e-16 -4.523863033812811 0.0
-8.313114379054871e-16 -4.52544868982784 0.0
-8.313114373300171e-16 -4.525448686695127 0.0
-8.310202845318886e-16 -4.523863724683598 0.0
-8.310506321831612e-16 -4.524028929602511 0.0
-8.325358381940804e-16 -4.532114014553553 0.0
-8.324673042666602e-16 -4.531740933229382 0.0
-8.31079445424573e-16 -4.52418578158319 0.0
-8.319846020525198e-16 -4.529113224764234 0.0
-8.278570194333755e-16 -4.506643711529788 0.0
-8.250933290156074e-16 -4.491598881626221 0.0
-8.281041813422664e-16 -4.507989198294152 0.0
-8.276855293979317e-16 -4.505710163257948 0.0
-8.281172073139488e-16 -4.50806010838127 0.0
-8.250789587737027e-16 -4.491520653672851 0.0
-8.278588915861189e-16 -4.506653903054642 0.0
-8.3198548776019725e-16 -4.529118046332259 0.0
-8.311254604707268e-16 -4.5244362758273855 0.0
-8.324770513595677e-16 -4.531793993931805 0.0
-8.325361484326952e-16 -4.532115703413911 0.0
-8.310505087641453e-16 -4.524028257740682 0.0
-8.310201591833127e-16 -4.523863042317733 0.0
-8.313114379055052e-16 -4.525448689827939 0.0
-8.31311437330039e-16 -4.525448686695246 0.0
-8.310202857102539e-16 -4.523863731098319 0.0
-8.310506547773423e-16 -4.524029052599504 0.0
-8.325380888973444e-16 -4.532126266811459 0.0
-8.325706614828069e-16 -4.532303583707972 0.0
-8.310801022395654e-16 -4.524189357117474 0.0